
5

(t5:0.0302656053,(t4:0.0630097628,t1:0.0663020282):0.4035133152,(t3:0.0535056959,t2:0.0615699246):0.4448448355);

 0.403513 0.0630098  0.066302  0.444845 0.0535057 0.0615699 0.0302656

  0.0126291   0.0160598  0.00714427 0.000435987   0.0220875  1.7615e-05  -0.0169894


Hessian 
-235.077 -42.0898  40.0289  87.1377 -17.7745 -142.115  -3.4818
-42.0898 -1922.87  17.5209   160.63 -60.2354  69.4158 -286.177
 40.0289  17.5209 -1857.83 -1597.71 -144.352  266.423  81.5455
 87.1377   160.63 -1597.71 -204.066  18.7818  347.746 -83.3974
-17.7745 -60.2354 -144.352  18.7818  -2035.4 -83.0136  54.5764
-142.115  69.4158  266.423  347.746 -83.0136 -1885.01 -135.561
 -3.4818 -286.177  81.5455 -83.3974  54.5764 -135.561 -1230.16
